8
	Energy:       0.1406273
C         -1.86754       -0.71811       -0.00000
C         -0.41933       -0.25923       -0.00000
H         -0.36566        0.81807       -0.26364
H          0.16128       -0.84490       -0.74352
H          0.02334       -0.40960        1.00716
H         -2.31021       -0.56774       -1.00717
H         -2.44815       -0.13243        0.74352
H         -1.92121       -1.79541        0.26364
